/*--------------------------------*- C++ -*----------------------------------*\
| =========                 |                                                 |
| \\      /  F ield         | OpenFOAM: The Open Source CFD Toolbox           |
|  \\    /   O peration     | Version:  2512                                  |
|   \\  /    A nd           | Website:  www.openfoam.com                      |
|    \\/     M anipulation  |                                                 |
\*---------------------------------------------------------------------------*/
FoamFile
{
    version     2.0;
    format      ascii;
    arch        "LSB;label=32;scalar=64";
    class       volVectorField;
    location    "0";
    object      C;
}
// * * * * * * * * * * * * * * * * * * * * * * * * * * * * * * * * * * * * * //

dimensions      [0 1 0 0 0 0 0];

internalField   nonuniform List<vector> 
10000
(
(0.0005 1.00166e-05 0.00025)
(0.0005 3.03843e-05 0.00025)
(0.0005 5.14321e-05 0.00025)
(0.0005 7.31827e-05 0.00025)
(0.0005 9.56596e-05 0.00025)
(0.0005 0.000118887 0.00025)
(0.0005 0.00014289 0.00025)
(0.0005 0.000167695 0.00025)
(0.0005 0.000193327 0.00025)
(0.0005 0.000219816 0.00025)
(0.0005 0.000247189 0.00025)
(0.0005 0.000275476 0.00025)
(0.0005 0.000304708 0.00025)
(0.0005 0.000334916 0.00025)
(0.0005 0.000366132 0.00025)
(0.0005 0.000398391 0.00025)
(0.0005 0.000431727 0.00025)
(0.0005 0.000466176 0.00025)
(0.0005 0.000501775 0.00025)
(0.0005 0.000538563 0.00025)
(0.0005 0.00057658 0.00025)
(0.0005 0.000615865 0.00025)
(0.0005 0.000656463 0.00025)
(0.0005 0.000698416 0.00025)
(0.0005 0.00074177 0.00025)
(0.0005 0.000786572 0.00025)
(0.0005 0.00083287 0.00025)
(0.0005 0.000880713 0.00025)
(0.0005 0.000930155 0.00025)
(0.0005 0.000981247 0.00025)
(0.0005 0.00103404 0.00025)
(0.0005 0.00108861 0.00025)
(0.0005 0.00114499 0.00025)
(0.0005 0.00120325 0.00025)
(0.0005 0.00126347 0.00025)
(0.0005 0.00132569 0.00025)
(0.0005 0.00138999 0.00025)
(0.0005 0.00145643 0.00025)
(0.0005 0.0015251 0.00025)
(0.0005 0.00159606 0.00025)
(0.0005 0.00166938 0.00025)
(0.0005 0.00174516 0.00025)
(0.0005 0.00182346 0.00025)
(0.0005 0.00190439 0.00025)
(0.0005 0.00198801 0.00025)
(0.0005 0.00207442 0.00025)
(0.0005 0.00216372 0.00025)
(0.0005 0.00225601 0.00025)
(0.0005 0.00235137 0.00025)
(0.0005 0.00244992 0.00025)
(0.0005 1.00166e-05 0.00075)
(0.0005 3.03843e-05 0.00075)
(0.0005 5.14321e-05 0.00075)
(0.0005 7.31827e-05 0.00075)
(0.0005 9.56596e-05 0.00075)
(0.0005 0.000118887 0.00075)
(0.0005 0.00014289 0.00075)
(0.0005 0.000167695 0.00075)
(0.0005 0.000193327 0.00075)
(0.0005 0.000219816 0.00075)
(0.0005 0.000247189 0.00075)
(0.0005 0.000275476 0.00075)
(0.0005 0.000304708 0.00075)
(0.0005 0.000334916 0.00075)
(0.0005 0.000366132 0.00075)
(0.0005 0.000398391 0.00075)
(0.0005 0.000431727 0.00075)
(0.0005 0.000466176 0.00075)
(0.0005 0.000501775 0.00075)
(0.0005 0.000538563 0.00075)
(0.0005 0.00057658 0.00075)
(0.0005 0.000615865 0.00075)
(0.0005 0.000656463 0.00075)
(0.0005 0.000698416 0.00075)
(0.0005 0.00074177 0.00075)
(0.0005 0.000786572 0.00075)
(0.0005 0.00083287 0.00075)
(0.0005 0.000880713 0.00075)
(0.0005 0.000930155 0.00075)
(0.0005 0.000981247 0.00075)
(0.0005 0.00103404 0.00075)
(0.0005 0.00108861 0.00075)
(0.0005 0.00114499 0.00075)
(0.0005 0.00120325 0.00075)
(0.0005 0.00126347 0.00075)
(0.0005 0.00132569 0.00075)
(0.0005 0.00138999 0.00075)
(0.0005 0.00145643 0.00075)
(0.0005 0.0015251 0.00075)
(0.0005 0.00159606 0.00075)
(0.0005 0.00166938 0.00075)
(0.0005 0.00174516 0.00075)
(0.0005 0.00182346 0.00075)
(0.0005 0.00190439 0.00075)
(0.0005 0.00198801 0.00075)
(0.0005 0.00207442 0.00075)
(0.0005 0.00216372 0.00075)
(0.0005 0.00225601 0.00075)
(0.0005 0.00235137 0.00075)
(0.0005 0.00244992 0.00075)
(0.0005 1.00166e-05 0.00125)
(0.0005 3.03843e-05 0.00125)
(0.0005 5.14321e-05 0.00125)
(0.0005 7.31827e-05 0.00125)
(0.0005 9.56596e-05 0.00125)
(0.0005 0.000118887 0.00125)
(0.0005 0.00014289 0.00125)
(0.0005 0.000167695 0.00125)
(0.0005 0.000193327 0.00125)
(0.0005 0.000219816 0.00125)
(0.0005 0.000247189 0.00125)
(0.0005 0.000275476 0.00125)
(0.0005 0.000304708 0.00125)
(0.0005 0.000334916 0.00125)
(0.0005 0.000366132 0.00125)
(0.0005 0.000398391 0.00125)
(0.0005 0.000431727 0.00125)
(0.0005 0.000466176 0.00125)
(0.0005 0.000501775 0.00125)
(0.0005 0.000538563 0.00125)
(0.0005 0.00057658 0.00125)
(0.0005 0.000615865 0.00125)
(0.0005 0.000656463 0.00125)
(0.0005 0.000698416 0.00125)
(0.0005 0.00074177 0.00125)
(0.0005 0.000786572 0.00125)
(0.0005 0.00083287 0.00125)
(0.0005 0.000880713 0.00125)
(0.0005 0.000930155 0.00125)
(0.0005 0.000981247 0.00125)
(0.0005 0.00103404 0.00125)
(0.0005 0.00108861 0.00125)
(0.0005 0.00114499 0.00125)
(0.0005 0.00120325 0.00125)
(0.0005 0.00126347 0.00125)
(0.0005 0.00132569 0.00125)
(0.0005 0.00138999 0.00125)
(0.0005 0.00145643 0.00125)
(0.0005 0.0015251 0.00125)
(0.0005 0.00159606 0.00125)
(0.0005 0.00166938 0.00125)
(0.0005 0.00174516 0.00125)
(0.0005 0.00182346 0.00125)
(0.0005 0.00190439 0.00125)
(0.0005 0.00198801 0.00125)
(0.0005 0.00207442 0.00125)
(0.0005 0.00216372 0.00125)
(0.0005 0.00225601 0.00125)
(0.0005 0.00235137 0.00125)
(0.0005 0.00244992 0.00125)
(0.0005 1.00166e-05 0.00175)
(0.0005 3.03843e-05 0.00175)
(0.0005 5.14321e-05 0.00175)
(0.0005 7.31827e-05 0.00175)
(0.0005 9.56596e-05 0.00175)
(0.0005 0.000118887 0.00175)
(0.0005 0.00014289 0.00175)
(0.0005 0.000167695 0.00175)
(0.0005 0.000193327 0.00175)
(0.0005 0.000219816 0.00175)
(0.0005 0.000247189 0.00175)
(0.0005 0.000275476 0.00175)
(0.0005 0.000304708 0.00175)
(0.0005 0.000334916 0.00175)
(0.0005 0.000366132 0.00175)
(0.0005 0.000398391 0.00175)
(0.0005 0.000431727 0.00175)
(0.0005 0.000466176 0.00175)
(0.0005 0.000501775 0.00175)
(0.0005 0.000538563 0.00175)
(0.0005 0.00057658 0.00175)
(0.0005 0.000615865 0.00175)
(0.0005 0.000656463 0.00175)
(0.0005 0.000698416 0.00175)
(0.0005 0.00074177 0.00175)
(0.0005 0.000786572 0.00175)
(0.0005 0.00083287 0.00175)
(0.0005 0.000880713 0.00175)
(0.0005 0.000930155 0.00175)
(0.0005 0.000981247 0.00175)
(0.0005 0.00103404 0.00175)
(0.0005 0.00108861 0.00175)
(0.0005 0.00114499 0.00175)
(0.0005 0.00120325 0.00175)
(0.0005 0.00126347 0.00175)
(0.0005 0.00132569 0.00175)
(0.0005 0.00138999 0.00175)
(0.0005 0.00145643 0.00175)
(0.0005 0.0015251 0.00175)
(0.0005 0.00159606 0.00175)
(0.0005 0.00166938 0.00175)
(0.0005 0.00174516 0.00175)
(0.0005 0.00182346 0.00175)
(0.0005 0.00190439 0.00175)
(0.0005 0.00198801 0.00175)
(0.0005 0.00207442 0.00175)
(0.0005 0.00216372 0.00175)
(0.0005 0.00225601 0.00175)
(0.0005 0.00235137 0.00175)
(0.0005 0.00244992 0.00175)
(0.0005 1.00166e-05 0.00225)
(0.0005 3.03843e-05 0.00225)
(0.0005 5.14321e-05 0.00225)
(0.0005 7.31827e-05 0.00225)
(0.0005 9.56596e-05 0.00225)
(0.0005 0.000118887 0.00225)
(0.0005 0.00014289 0.00225)
(0.0005 0.000167695 0.00225)
(0.0005 0.000193327 0.00225)
(0.0005 0.000219816 0.00225)
(0.0005 0.000247189 0.00225)
(0.0005 0.000275476 0.00225)
(0.0005 0.000304708 0.00225)
(0.0005 0.000334916 0.00225)
(0.0005 0.000366132 0.00225)
(0.0005 0.000398391 0.00225)
(0.0005 0.000431727 0.00225)
(0.0005 0.000466176 0.00225)
(0.0005 0.000501775 0.00225)
(0.0005 0.000538563 0.00225)
(0.0005 0.00057658 0.00225)
(0.0005 0.000615865 0.00225)
(0.0005 0.000656463 0.00225)
(0.0005 0.000698416 0.00225)
(0.0005 0.00074177 0.00225)
(0.0005 0.000786572 0.00225)
(0.0005 0.00083287 0.00225)
(0.0005 0.000880713 0.00225)
(0.0005 0.000930155 0.00225)
(0.0005 0.000981247 0.00225)
(0.0005 0.00103404 0.00225)
(0.0005 0.00108861 0.00225)
(0.0005 0.00114499 0.00225)
(0.0005 0.00120325 0.00225)
(0.0005 0.00126347 0.00225)
(0.0005 0.00132569 0.00225)
(0.0005 0.00138999 0.00225)
(0.0005 0.00145643 0.00225)
(0.0005 0.0015251 0.00225)
(0.0005 0.00159606 0.00225)
(0.0005 0.00166938 0.00225)
(0.0005 0.00174516 0.00225)
(0.0005 0.00182346 0.00225)
(0.0005 0.00190439 0.00225)
(0.0005 0.00198801 0.00225)
(0.0005 0.00207442 0.00225)
(0.0005 0.00216372 0.00225)
(0.0005 0.00225601 0.00225)
(0.0005 0.00235137 0.00225)
(0.0005 0.00244992 0.00225)
(0.0005 1.00166e-05 0.00275)
(0.0005 3.03843e-05 0.00275)
(0.0005 5.14321e-05 0.00275)
(0.0005 7.31827e-05 0.00275)
(0.0005 9.56596e-05 0.00275)
(0.0005 0.000118887 0.00275)
(0.0005 0.00014289 0.00275)
(0.0005 0.000167695 0.00275)
(0.0005 0.000193327 0.00275)
(0.0005 0.000219816 0.00275)
(0.0005 0.000247189 0.00275)
(0.0005 0.000275476 0.00275)
(0.0005 0.000304708 0.00275)
(0.0005 0.000334916 0.00275)
(0.0005 0.000366132 0.00275)
(0.0005 0.000398391 0.00275)
(0.0005 0.000431727 0.00275)
(0.0005 0.000466176 0.00275)
(0.0005 0.000501775 0.00275)
(0.0005 0.000538563 0.00275)
(0.0005 0.00057658 0.00275)
(0.0005 0.000615865 0.00275)
(0.0005 0.000656463 0.00275)
(0.0005 0.000698416 0.00275)
(0.0005 0.00074177 0.00275)
(0.0005 0.000786572 0.00275)
(0.0005 0.00083287 0.00275)
(0.0005 0.000880713 0.00275)
(0.0005 0.000930155 0.00275)
(0.0005 0.000981247 0.00275)
(0.0005 0.00103404 0.00275)
(0.0005 0.00108861 0.00275)
(0.0005 0.00114499 0.00275)
(0.0005 0.00120325 0.00275)
(0.0005 0.00126347 0.00275)
(0.0005 0.00132569 0.00275)
(0.0005 0.00138999 0.00275)
(0.0005 0.00145643 0.00275)
(0.0005 0.0015251 0.00275)
(0.0005 0.00159606 0.00275)
(0.0005 0.00166938 0.00275)
(0.0005 0.00174516 0.00275)
(0.0005 0.00182346 0.00275)
(0.0005 0.00190439 0.00275)
(0.0005 0.00198801 0.00275)
(0.0005 0.00207442 0.00275)
(0.0005 0.00216372 0.00275)
(0.0005 0.00225601 0.00275)
(0.0005 0.00235137 0.00275)
(0.0005 0.00244992 0.00275)
(0.0005 1.00166e-05 0.00325)
(0.0005 3.03843e-05 0.00325)
(0.0005 5.14321e-05 0.00325)
(0.0005 7.31827e-05 0.00325)
(0.0005 9.56596e-05 0.00325)
(0.0005 0.000118887 0.00325)
(0.0005 0.00014289 0.00325)
(0.0005 0.000167695 0.00325)
(0.0005 0.000193327 0.00325)
(0.0005 0.000219816 0.00325)
(0.0005 0.000247189 0.00325)
(0.0005 0.000275476 0.00325)
(0.0005 0.000304708 0.00325)
(0.0005 0.000334916 0.00325)
(0.0005 0.000366132 0.00325)
(0.0005 0.000398391 0.00325)
(0.0005 0.000431727 0.00325)
(0.0005 0.000466176 0.00325)
(0.0005 0.000501775 0.00325)
(0.0005 0.000538563 0.00325)
(0.0005 0.00057658 0.00325)
(0.0005 0.000615865 0.00325)
(0.0005 0.000656463 0.00325)
(0.0005 0.000698416 0.00325)
(0.0005 0.00074177 0.00325)
(0.0005 0.000786572 0.00325)
(0.0005 0.00083287 0.00325)
(0.0005 0.000880713 0.00325)
(0.0005 0.000930155 0.00325)
(0.0005 0.000981247 0.00325)
(0.0005 0.00103404 0.00325)
(0.0005 0.00108861 0.00325)
(0.0005 0.00114499 0.00325)
(0.0005 0.00120325 0.00325)
(0.0005 0.00126347 0.00325)
(0.0005 0.00132569 0.00325)
(0.0005 0.00138999 0.00325)
(0.0005 0.00145643 0.00325)
(0.0005 0.0015251 0.00325)
(0.0005 0.00159606 0.00325)
(0.0005 0.00166938 0.00325)
(0.0005 0.00174516 0.00325)
(0.0005 0.00182346 0.00325)
(0.0005 0.00190439 0.00325)
(0.0005 0.00198801 0.00325)
(0.0005 0.00207442 0.00325)
(0.0005 0.00216372 0.00325)
(0.0005 0.00225601 0.00325)
(0.0005 0.00235137 0.00325)
(0.0005 0.00244992 0.00325)
(0.0005 1.00166e-05 0.00375)
(0.0005 3.03843e-05 0.00375)
(0.0005 5.14321e-05 0.00375)
(0.0005 7.31827e-05 0.00375)
(0.0005 9.56596e-05 0.00375)
(0.0005 0.000118887 0.00375)
(0.0005 0.00014289 0.00375)
(0.0005 0.000167695 0.00375)
(0.0005 0.000193327 0.00375)
(0.0005 0.000219816 0.00375)
(0.0005 0.000247189 0.00375)
(0.0005 0.000275476 0.00375)
(0.0005 0.000304708 0.00375)
(0.0005 0.000334916 0.00375)
(0.0005 0.000366132 0.00375)
(0.0005 0.000398391 0.00375)
(0.0005 0.000431727 0.00375)
(0.0005 0.000466176 0.00375)
(0.0005 0.000501775 0.00375)
(0.0005 0.000538563 0.00375)
(0.0005 0.00057658 0.00375)
(0.0005 0.000615865 0.00375)
(0.0005 0.000656463 0.00375)
(0.0005 0.000698416 0.00375)
(0.0005 0.00074177 0.00375)
(0.0005 0.000786572 0.00375)
(0.0005 0.00083287 0.00375)
(0.0005 0.000880713 0.00375)
(0.0005 0.000930155 0.00375)
(0.0005 0.000981247 0.00375)
(0.0005 0.00103404 0.00375)
(0.0005 0.00108861 0.00375)
(0.0005 0.00114499 0.00375)
(0.0005 0.00120325 0.00375)
(0.0005 0.00126347 0.00375)
(0.0005 0.00132569 0.00375)
(0.0005 0.00138999 0.00375)
(0.0005 0.00145643 0.00375)
(0.0005 0.0015251 0.00375)
(0.0005 0.00159606 0.00375)
(0.0005 0.00166938 0.00375)
(0.0005 0.00174516 0.00375)
(0.0005 0.00182346 0.00375)
(0.0005 0.00190439 0.00375)
(0.0005 0.00198801 0.00375)
(0.0005 0.00207442 0.00375)
(0.0005 0.00216372 0.00375)
(0.0005 0.00225601 0.00375)
(0.0005 0.00235137 0.00375)
(0.0005 0.00244992 0.00375)
(0.0005 1.00166e-05 0.00425)
(0.0005 3.03843e-05 0.00425)
(0.0005 5.14321e-05 0.00425)
(0.0005 7.31827e-05 0.00425)
(0.0005 9.56596e-05 0.00425)
(0.0005 0.000118887 0.00425)
(0.0005 0.00014289 0.00425)
(0.0005 0.000167695 0.00425)
(0.0005 0.000193327 0.00425)
(0.0005 0.000219816 0.00425)
(0.0005 0.000247189 0.00425)
(0.0005 0.000275476 0.00425)
(0.0005 0.000304708 0.00425)
(0.0005 0.000334916 0.00425)
(0.0005 0.000366132 0.00425)
(0.0005 0.000398391 0.00425)
(0.0005 0.000431727 0.00425)
(0.0005 0.000466176 0.00425)
(0.0005 0.000501775 0.00425)
(0.0005 0.000538563 0.00425)
(0.0005 0.00057658 0.00425)
(0.0005 0.000615865 0.00425)
(0.0005 0.000656463 0.00425)
(0.0005 0.000698416 0.00425)
(0.0005 0.00074177 0.00425)
(0.0005 0.000786572 0.00425)
(0.0005 0.00083287 0.00425)
(0.0005 0.000880713 0.00425)
(0.0005 0.000930155 0.00425)
(0.0005 0.000981247 0.00425)
(0.0005 0.00103404 0.00425)
(0.0005 0.00108861 0.00425)
(0.0005 0.00114499 0.00425)
(0.0005 0.00120325 0.00425)
(0.0005 0.00126347 0.00425)
(0.0005 0.00132569 0.00425)
(0.0005 0.00138999 0.00425)
(0.0005 0.00145643 0.00425)
(0.0005 0.0015251 0.00425)
(0.0005 0.00159606 0.00425)
(0.0005 0.00166938 0.00425)
(0.0005 0.00174516 0.00425)
(0.0005 0.00182346 0.00425)
(0.0005 0.00190439 0.00425)
(0.0005 0.00198801 0.00425)
(0.0005 0.00207442 0.00425)
(0.0005 0.00216372 0.00425)
(0.0005 0.00225601 0.00425)
(0.0005 0.00235137 0.00425)
(0.0005 0.00244992 0.00425)
(0.0005 1.00166e-05 0.00475)
(0.0005 3.03843e-05 0.00475)
(0.0005 5.14321e-05 0.00475)
(0.0005 7.31827e-05 0.00475)
(0.0005 9.56596e-05 0.00475)
(0.0005 0.000118887 0.00475)
(0.0005 0.00014289 0.00475)
(0.0005 0.000167695 0.00475)
(0.0005 0.000193327 0.00475)
(0.0005 0.000219816 0.00475)
(0.0005 0.000247189 0.00475)
(0.0005 0.000275476 0.00475)
(0.0005 0.000304708 0.00475)
(0.0005 0.000334916 0.00475)
(0.0005 0.000366132 0.00475)
(0.0005 0.000398391 0.00475)
(0.0005 0.000431727 0.00475)
(0.0005 0.000466176 0.00475)
(0.0005 0.000501775 0.00475)
(0.0005 0.000538563 0.00475)
(0.0005 0.00057658 0.00475)
(0.0005 0.000615865 0.00475)
(0.0005 0.000656463 0.00475)
(0.0005 0.000698416 0.00475)
(0.0005 0.00074177 0.00475)
(0.0005 0.000786572 0.00475)
(0.0005 0.00083287 0.00475)
(0.0005 0.000880713 0.00475)
(0.0005 0.000930155 0.00475)
(0.0005 0.000981247 0.00475)
(0.0005 0.00103404 0.00475)
(0.0005 0.00108861 0.00475)
(0.0005 0.00114499 0.00475)
(0.0005 0.00120325 0.00475)
(0.0005 0.00126347 0.00475)
(0.0005 0.00132569 0.00475)
(0.0005 0.00138999 0.00475)
(0.0005 0.00145643 0.00475)
(0.0005 0.0015251 0.00475)
(0.0005 0.00159606 0.00475)
(0.0005 0.00166938 0.00475)
(0.0005 0.00174516 0.00475)
(0.0005 0.00182346 0.00475)
(0.0005 0.00190439 0.00475)
(0.0005 0.00198801 0.00475)
(0.0005 0.00207442 0.00475)
(0.0005 0.00216372 0.00475)
(0.0005 0.00225601 0.00475)
(0.0005 0.00235137 0.00475)
(0.0005 0.00244992 0.00475)
(0.0005 1.00166e-05 0.00525)
(0.0005 3.03843e-05 0.00525)
(0.0005 5.14321e-05 0.00525)
(0.0005 7.31827e-05 0.00525)
(0.0005 9.56596e-05 0.00525)
(0.0005 0.000118887 0.00525)
(0.0005 0.00014289 0.00525)
(0.0005 0.000167695 0.00525)
(0.0005 0.000193327 0.00525)
(0.0005 0.000219816 0.00525)
(0.0005 0.000247189 0.00525)
(0.0005 0.000275476 0.00525)
(0.0005 0.000304708 0.00525)
(0.0005 0.000334916 0.00525)
(0.0005 0.000366132 0.00525)
(0.0005 0.000398391 0.00525)
(0.0005 0.000431727 0.00525)
(0.0005 0.000466176 0.00525)
(0.0005 0.000501775 0.00525)
(0.0005 0.000538563 0.00525)
(0.0005 0.00057658 0.00525)
(0.0005 0.000615865 0.00525)
(0.0005 0.000656463 0.00525)
(0.0005 0.000698416 0.00525)
(0.0005 0.00074177 0.00525)
(0.0005 0.000786572 0.00525)
(0.0005 0.00083287 0.00525)
(0.0005 0.000880713 0.00525)
(0.0005 0.000930155 0.00525)
(0.0005 0.000981247 0.00525)
(0.0005 0.00103404 0.00525)
(0.0005 0.00108861 0.00525)
(0.0005 0.00114499 0.00525)
(0.0005 0.00120325 0.00525)
(0.0005 0.00126347 0.00525)
(0.0005 0.00132569 0.00525)
(0.0005 0.00138999 0.00525)
(0.0005 0.00145643 0.00525)
(0.0005 0.0015251 0.00525)
(0.0005 0.00159606 0.00525)
(0.0005 0.00166938 0.00525)
(0.0005 0.00174516 0.00525)
(0.0005 0.00182346 0.00525)
(0.0005 0.00190439 0.00525)
(0.0005 0.00198801 0.00525)
(0.0005 0.00207442 0.00525)
(0.0005 0.00216372 0.00525)
(0.0005 0.00225601 0.00525)
(0.0005 0.00235137 0.00525)
(0.0005 0.00244992 0.00525)
(0.0005 1.00166e-05 0.00575)
(0.0005 3.03843e-05 0.00575)
(0.0005 5.14321e-05 0.00575)
(0.0005 7.31827e-05 0.00575)
(0.0005 9.56596e-05 0.00575)
(0.0005 0.000118887 0.00575)
(0.0005 0.00014289 0.00575)
(0.0005 0.000167695 0.00575)
(0.0005 0.000193327 0.00575)
(0.0005 0.000219816 0.00575)
(0.0005 0.000247189 0.00575)
(0.0005 0.000275476 0.00575)
(0.0005 0.000304708 0.00575)
(0.0005 0.000334916 0.00575)
(0.0005 0.000366132 0.00575)
(0.0005 0.000398391 0.00575)
(0.0005 0.000431727 0.00575)
(0.0005 0.000466176 0.00575)
(0.0005 0.000501775 0.00575)
(0.0005 0.000538563 0.00575)
(0.0005 0.00057658 0.00575)
(0.0005 0.000615865 0.00575)
(0.0005 0.000656463 0.00575)
(0.0005 0.000698416 0.00575)
(0.0005 0.00074177 0.00575)
(0.0005 0.000786572 0.00575)
(0.0005 0.00083287 0.00575)
(0.0005 0.000880713 0.00575)
(0.0005 0.000930155 0.00575)
(0.0005 0.000981247 0.00575)
(0.0005 0.00103404 0.00575)
(0.0005 0.00108861 0.00575)
(0.0005 0.00114499 0.00575)
(0.0005 0.00120325 0.00575)
(0.0005 0.00126347 0.00575)
(0.0005 0.00132569 0.00575)
(0.0005 0.00138999 0.00575)
(0.0005 0.00145643 0.00575)
(0.0005 0.0015251 0.00575)
(0.0005 0.00159606 0.00575)
(0.0005 0.00166938 0.00575)
(0.0005 0.00174516 0.00575)
(0.0005 0.00182346 0.00575)
(0.0005 0.00190439 0.00575)
(0.0005 0.00198801 0.00575)
(0.0005 0.00207442 0.00575)
(0.0005 0.00216372 0.00575)
(0.0005 0.00225601 0.00575)
(0.0005 0.00235137 0.00575)
(0.0005 0.00244992 0.00575)
(0.0005 1.00166e-05 0.00625)
(0.0005 3.03843e-05 0.00625)
(0.0005 5.14321e-05 0.00625)
(0.0005 7.31827e-05 0.00625)
(0.0005 9.56596e-05 0.00625)
(0.0005 0.000118887 0.00625)
(0.0005 0.00014289 0.00625)
(0.0005 0.000167695 0.00625)
(0.0005 0.000193327 0.00625)
(0.0005 0.000219816 0.00625)
(0.0005 0.000247189 0.00625)
(0.0005 0.000275476 0.00625)
(0.0005 0.000304708 0.00625)
(0.0005 0.000334916 0.00625)
(0.0005 0.000366132 0.00625)
(0.0005 0.000398391 0.00625)
(0.0005 0.000431727 0.00625)
(0.0005 0.000466176 0.00625)
(0.0005 0.000501775 0.00625)
(0.0005 0.000538563 0.00625)
(0.0005 0.00057658 0.00625)
(0.0005 0.000615865 0.00625)
(0.0005 0.000656463 0.00625)
(0.0005 0.000698416 0.00625)
(0.0005 0.00074177 0.00625)
(0.0005 0.000786572 0.00625)
(0.0005 0.00083287 0.00625)
(0.0005 0.000880713 0.00625)
(0.0005 0.000930155 0.00625)
(0.0005 0.000981247 0.00625)
(0.0005 0.00103404 0.00625)
(0.0005 0.00108861 0.00625)
(0.0005 0.00114499 0.00625)
(0.0005 0.00120325 0.00625)
(0.0005 0.00126347 0.00625)
(0.0005 0.00132569 0.00625)
(0.0005 0.00138999 0.00625)
(0.0005 0.00145643 0.00625)
(0.0005 0.0015251 0.00625)
(0.0005 0.00159606 0.00625)
(0.0005 0.00166938 0.00625)
(0.0005 0.00174516 0.00625)
(0.0005 0.00182346 0.00625)
(0.0005 0.00190439 0.00625)
(0.0005 0.00198801 0.00625)
(0.0005 0.00207442 0.00625)
(0.0005 0.00216372 0.00625)
(0.0005 0.00225601 0.00625)
(0.0005 0.00235137 0.00625)
(0.0005 0.00244992 0.00625)
(0.0005 1.00166e-05 0.00675)
(0.0005 3.03843e-05 0.00675)
(0.0005 5.14321e-05 0.00675)
(0.0005 7.31827e-05 0.00675)
(0.0005 9.56596e-05 0.00675)
(0.0005 0.000118887 0.00675)
(0.0005 0.00014289 0.00675)
(0.0005 0.000167695 0.00675)
(0.0005 0.000193327 0.00675)
(0.0005 0.000219816 0.00675)
(0.0005 0.000247189 0.00675)
(0.0005 0.000275476 0.00675)
(0.0005 0.000304708 0.00675)
(0.0005 0.000334916 0.00675)
(0.0005 0.000366132 0.00675)
(0.0005 0.000398391 0.00675)
(0.0005 0.000431727 0.00675)
(0.0005 0.000466176 0.00675)
(0.0005 0.000501775 0.00675)
(0.0005 0.000538563 0.00675)
(0.0005 0.00057658 0.00675)
(0.0005 0.000615865 0.00675)
(0.0005 0.000656463 0.00675)
(0.0005 0.000698416 0.00675)
(0.0005 0.00074177 0.00675)
(0.0005 0.000786572 0.00675)
(0.0005 0.00083287 0.00675)
(0.0005 0.000880713 0.00675)
(0.0005 0.000930155 0.00675)
(0.0005 0.000981247 0.00675)
(0.0005 0.00103404 0.00675)
(0.0005 0.00108861 0.00675)
(0.0005 0.00114499 0.00675)
(0.0005 0.00120325 0.00675)
(0.0005 0.00126347 0.00675)
(0.0005 0.00132569 0.00675)
(0.0005 0.00138999 0.00675)
(0.0005 0.00145643 0.00675)
(0.0005 0.0015251 0.00675)
(0.0005 0.00159606 0.00675)
(0.0005 0.00166938 0.00675)
(0.0005 0.00174516 0.00675)
(0.0005 0.00182346 0.00675)
(0.0005 0.00190439 0.00675)
(0.0005 0.00198801 0.00675)
(0.0005 0.00207442 0.00675)
(0.0005 0.00216372 0.00675)
(0.0005 0.00225601 0.00675)
(0.0005 0.00235137 0.00675)
(0.0005 0.00244992 0.00675)
(0.0005 1.00166e-05 0.00725)
(0.0005 3.03843e-05 0.00725)
(0.0005 5.14321e-05 0.00725)
(0.0005 7.31827e-05 0.00725)
(0.0005 9.56596e-05 0.00725)
(0.0005 0.000118887 0.00725)
(0.0005 0.00014289 0.00725)
(0.0005 0.000167695 0.00725)
(0.0005 0.000193327 0.00725)
(0.0005 0.000219816 0.00725)
(0.0005 0.000247189 0.00725)
(0.0005 0.000275476 0.00725)
(0.0005 0.000304708 0.00725)
(0.0005 0.000334916 0.00725)
(0.0005 0.000366132 0.00725)
(0.0005 0.000398391 0.00725)
(0.0005 0.000431727 0.00725)
(0.0005 0.000466176 0.00725)
(0.0005 0.000501775 0.00725)
(0.0005 0.000538563 0.00725)
(0.0005 0.00057658 0.00725)
(0.0005 0.000615865 0.00725)
(0.0005 0.000656463 0.00725)
(0.0005 0.000698416 0.00725)
(0.0005 0.00074177 0.00725)
(0.0005 0.000786572 0.00725)
(0.0005 0.00083287 0.00725)
(0.0005 0.000880713 0.00725)
(0.0005 0.000930155 0.00725)
(0.0005 0.000981247 0.00725)
(0.0005 0.00103404 0.00725)
(0.0005 0.00108861 0.00725)
(0.0005 0.00114499 0.00725)
(0.0005 0.00120325 0.00725)
(0.0005 0.00126347 0.00725)
(0.0005 0.00132569 0.00725)
(0.0005 0.00138999 0.00725)
(0.0005 0.00145643 0.00725)
(0.0005 0.0015251 0.00725)
(0.0005 0.00159606 0.00725)
(0.0005 0.00166938 0.00725)
(0.0005 0.00174516 0.00725)
(0.0005 0.00182346 0.00725)
(0.0005 0.00190439 0.00725)
(0.0005 0.00198801 0.00725)
(0.0005 0.00207442 0.00725)
(0.0005 0.00216372 0.00725)
(0.0005 0.00225601 0.00725)
(0.0005 0.00235137 0.00725)
(0.0005 0.00244992 0.00725)
(0.0005 1.00166e-05 0.00775)
(0.0005 3.03843e-05 0.00775)
(0.0005 5.14321e-05 0.00775)
(0.0005 7.31827e-05 0.00775)
(0.0005 9.56596e-05 0.00775)
(0.0005 0.000118887 0.00775)
(0.0005 0.00014289 0.00775)
(0.0005 0.000167695 0.00775)
(0.0005 0.000193327 0.00775)
(0.0005 0.000219816 0.00775)
(0.0005 0.000247189 0.00775)
(0.0005 0.000275476 0.00775)
(0.0005 0.000304708 0.00775)
(0.0005 0.000334916 0.00775)
(0.0005 0.000366132 0.00775)
(0.0005 0.000398391 0.00775)
(0.0005 0.000431727 0.00775)
(0.0005 0.000466176 0.00775)
(0.0005 0.000501775 0.00775)
(0.0005 0.000538563 0.00775)
(0.0005 0.00057658 0.00775)
(0.0005 0.000615865 0.00775)
(0.0005 0.000656463 0.00775)
(0.0005 0.000698416 0.00775)
(0.0005 0.00074177 0.00775)
(0.0005 0.000786572 0.00775)
(0.0005 0.00083287 0.00775)
(0.0005 0.000880713 0.00775)
(0.0005 0.000930155 0.00775)
(0.0005 0.000981247 0.00775)
(0.0005 0.00103404 0.00775)
(0.0005 0.00108861 0.00775)
(0.0005 0.00114499 0.00775)
(0.0005 0.00120325 0.00775)
(0.0005 0.00126347 0.00775)
(0.0005 0.00132569 0.00775)
(0.0005 0.00138999 0.00775)
(0.0005 0.00145643 0.00775)
(0.0005 0.0015251 0.00775)
(0.0005 0.00159606 0.00775)
(0.0005 0.00166938 0.00775)
(0.0005 0.00174516 0.00775)
(0.0005 0.00182346 0.00775)
(0.0005 0.00190439 0.00775)
(0.0005 0.00198801 0.00775)
(0.0005 0.00207442 0.00775)
(0.0005 0.00216372 0.00775)
(0.0005 0.00225601 0.00775)
(0.0005 0.00235137 0.00775)
(0.0005 0.00244992 0.00775)
(0.0005 1.00166e-05 0.00825)
(0.0005 3.03843e-05 0.00825)
(0.0005 5.14321e-05 0.00825)
(0.0005 7.31827e-05 0.00825)
(0.0005 9.56596e-05 0.00825)
(0.0005 0.000118887 0.00825)
(0.0005 0.00014289 0.00825)
(0.0005 0.000167695 0.00825)
(0.0005 0.000193327 0.00825)
(0.0005 0.000219816 0.00825)
(0.0005 0.000247189 0.00825)
(0.0005 0.000275476 0.00825)
(0.0005 0.000304708 0.00825)
(0.0005 0.000334916 0.00825)
(0.0005 0.000366132 0.00825)
(0.0005 0.000398391 0.00825)
(0.0005 0.000431727 0.00825)
(0.0005 0.000466176 0.00825)
(0.0005 0.000501775 0.00825)
(0.0005 0.000538563 0.00825)
(0.0005 0.00057658 0.00825)
(0.0005 0.000615865 0.00825)
(0.0005 0.000656463 0.00825)
(0.0005 0.000698416 0.00825)
(0.0005 0.00074177 0.00825)
(0.0005 0.000786572 0.00825)
(0.0005 0.00083287 0.00825)
(0.0005 0.000880713 0.00825)
(0.0005 0.000930155 0.00825)
(0.0005 0.000981247 0.00825)
(0.0005 0.00103404 0.00825)
(0.0005 0.00108861 0.00825)
(0.0005 0.00114499 0.00825)
(0.0005 0.00120325 0.00825)
(0.0005 0.00126347 0.00825)
(0.0005 0.00132569 0.00825)
(0.0005 0.00138999 0.00825)
(0.0005 0.00145643 0.00825)
(0.0005 0.0015251 0.00825)
(0.0005 0.00159606 0.00825)
(0.0005 0.00166938 0.00825)
(0.0005 0.00174516 0.00825)
(0.0005 0.00182346 0.00825)
(0.0005 0.00190439 0.00825)
(0.0005 0.00198801 0.00825)
(0.0005 0.00207442 0.00825)
(0.0005 0.00216372 0.00825)
(0.0005 0.00225601 0.00825)
(0.0005 0.00235137 0.00825)
(0.0005 0.00244992 0.00825)
(0.0005 1.00166e-05 0.00875)
(0.0005 3.03843e-05 0.00875)
(0.0005 5.14321e-05 0.00875)
(0.0005 7.31827e-05 0.00875)
(0.0005 9.56596e-05 0.00875)
(0.0005 0.000118887 0.00875)
(0.0005 0.00014289 0.00875)
(0.0005 0.000167695 0.00875)
(0.0005 0.000193327 0.00875)
(0.0005 0.000219816 0.00875)
(0.0005 0.000247189 0.00875)
(0.0005 0.000275476 0.00875)
(0.0005 0.000304708 0.00875)
(0.0005 0.000334916 0.00875)
(0.0005 0.000366132 0.00875)
(0.0005 0.000398391 0.00875)
(0.0005 0.000431727 0.00875)
(0.0005 0.000466176 0.00875)
(0.0005 0.000501775 0.00875)
(0.0005 0.000538563 0.00875)
(0.0005 0.00057658 0.00875)
(0.0005 0.000615865 0.00875)
(0.0005 0.000656463 0.00875)
(0.0005 0.000698416 0.00875)
(0.0005 0.00074177 0.00875)
(0.0005 0.000786572 0.00875)
(0.0005 0.00083287 0.00875)
(0.0005 0.000880713 0.00875)
(0.0005 0.000930155 0.00875)
(0.0005 0.000981247 0.00875)
(0.0005 0.00103404 0.00875)
(0.0005 0.00108861 0.00875)
(0.0005 0.00114499 0.00875)
(0.0005 0.00120325 0.00875)
(0.0005 0.00126347 0.00875)
(0.0005 0.00132569 0.00875)
(0.0005 0.00138999 0.00875)
(0.0005 0.00145643 0.00875)
(0.0005 0.0015251 0.00875)
(0.0005 0.00159606 0.00875)
(0.0005 0.00166938 0.00875)
(0.0005 0.00174516 0.00875)
(0.0005 0.00182346 0.00875)
(0.0005 0.00190439 0.00875)
(0.0005 0.00198801 0.00875)
(0.0005 0.00207442 0.00875)
(0.0005 0.00216372 0.00875)
(0.0005 0.00225601 0.00875)
(0.0005 0.00235137 0.00875)
(0.0005 0.00244992 0.00875)
(0.0005 1.00166e-05 0.00925)
(0.0005 3.03843e-05 0.00925)
(0.0005 5.14321e-05 0.00925)
(0.0005 7.31827e-05 0.00925)
(0.0005 9.56596e-05 0.00925)
(0.0005 0.000118887 0.00925)
(0.0005 0.00014289 0.00925)
(0.0005 0.000167695 0.00925)
(0.0005 0.000193327 0.00925)
(0.0005 0.000219816 0.00925)
(0.0005 0.000247189 0.00925)
(0.0005 0.000275476 0.00925)
(0.0005 0.000304708 0.00925)
(0.0005 0.000334916 0.00925)
(0.0005 0.000366132 0.00925)
(0.0005 0.000398391 0.00925)
(0.0005 0.000431727 0.00925)
(0.0005 0.000466176 0.00925)
(0.0005 0.000501775 0.00925)
(0.0005 0.000538563 0.00925)
(0.0005 0.00057658 0.00925)
(0.0005 0.000615865 0.00925)
(0.0005 0.000656463 0.00925)
(0.0005 0.000698416 0.00925)
(0.0005 0.00074177 0.00925)
(0.0005 0.000786572 0.00925)
(0.0005 0.00083287 0.00925)
(0.0005 0.000880713 0.00925)
(0.0005 0.000930155 0.00925)
(0.0005 0.000981247 0.00925)
(0.0005 0.00103404 0.00925)
(0.0005 0.00108861 0.00925)
(0.0005 0.00114499 0.00925)
(0.0005 0.00120325 0.00925)
(0.0005 0.00126347 0.00925)
(0.0005 0.00132569 0.00925)
(0.0005 0.00138999 0.00925)
(0.0005 0.00145643 0.00925)
(0.0005 0.0015251 0.00925)
(0.0005 0.00159606 0.00925)
(0.0005 0.00166938 0.00925)
(0.0005 0.00174516 0.00925)
(0.0005 0.00182346 0.00925)
(0.0005 0.00190439 0.00925)
(0.0005 0.00198801 0.00925)
(0.0005 0.00207442 0.00925)
(0.0005 0.00216372 0.00925)
(0.0005 0.00225601 0.00925)
(0.0005 0.00235137 0.00925)
(0.0005 0.00244992 0.00925)
(0.0005 1.00166e-05 0.00975)
(0.0005 3.03843e-05 0.00975)
(0.0005 5.14321e-05 0.00975)
(0.0005 7.31827e-05 0.00975)
(0.0005 9.56596e-05 0.00975)
(0.0005 0.000118887 0.00975)
(0.0005 0.00014289 0.00975)
(0.0005 0.000167695 0.00975)
(0.0005 0.000193327 0.00975)
(0.0005 0.000219816 0.00975)
(0.0005 0.000247189 0.00975)
(0.0005 0.000275476 0.00975)
(0.0005 0.000304708 0.00975)
(0.0005 0.000334916 0.00975)
(0.0005 0.000366132 0.00975)
(0.0005 0.000398391 0.00975)
(0.0005 0.000431727 0.00975)
(0.0005 0.000466176 0.00975)
(0.0005 0.000501775 0.00975)
(0.0005 0.000538563 0.00975)
(0.0005 0.00057658 0.00975)
(0.0005 0.000615865 0.00975)
(0.0005 0.000656463 0.00975)
(0.0005 0.000698416 0.00975)
(0.0005 0.00074177 0.00975)
(0.0005 0.000786572 0.00975)
(0.0005 0.00083287 0.00975)
(0.0005 0.000880713 0.00975)
(0.0005 0.000930155 0.00975)
(0.0005 0.000981247 0.00975)
(0.0005 0.00103404 0.00975)
(0.0005 0.00108861 0.00975)
(0.0005 0.00114499 0.00975)
(0.0005 0.00120325 0.00975)
(0.0005 0.00126347 0.00975)
(0.0005 0.00132569 0.00975)
(0.0005 0.00138999 0.00975)
(0.0005 0.00145643 0.00975)
(0.0005 0.0015251 0.00975)
(0.0005 0.00159606 0.00975)
(0.0005 0.00166938 0.00975)
(0.0005 0.00174516 0.00975)
(0.0005 0.00182346 0.00975)
(0.0005 0.00190439 0.00975)
(0.0005 0.00198801 0.00975)
(0.0005 0.00207442 0.00975)
(0.0005 0.00216372 0.00975)
(0.0005 0.00225601 0.00975)
(0.0005 0.00235137 0.00975)
(0.0005 0.00244992 0.00975)
(0.0005 1.00166e-05 0.01025)
(0.0005 3.03843e-05 0.01025)
(0.0005 5.14321e-05 0.01025)
(0.0005 7.31827e-05 0.01025)
(0.0005 9.56596e-05 0.01025)
(0.0005 0.000118887 0.01025)
(0.0005 0.00014289 0.01025)
(0.0005 0.000167695 0.01025)
(0.0005 0.000193327 0.01025)
(0.0005 0.000219816 0.01025)
(0.0005 0.000247189 0.01025)
(0.0005 0.000275476 0.01025)
(0.0005 0.000304708 0.01025)
(0.0005 0.000334916 0.01025)
(0.0005 0.000366132 0.01025)
(0.0005 0.000398391 0.01025)
(0.0005 0.000431727 0.01025)
(0.0005 0.000466176 0.01025)
(0.0005 0.000501775 0.01025)
(0.0005 0.000538563 0.01025)